LAMMPS Description

971 atoms
0 bonds
0 angles
0 dihedrals
0 impropers

3 atom types

    0.00   33.15 xlo xhi
  -40.00   40.00 ylo yhi
  -40.00   40.00 zlo zhi

Masses

2       23.00
1       18.00
3      350.00

Atoms

       1       0       3    5.0000       3.600000       0.000000       0.000000
       2       0       2    1.0000      15.068067       0.000000       0.000000
       3       0       2    1.0000      18.081680       0.000000       0.000000
       4       0       2    1.0000      21.095293       0.000000       0.000000
       5       0       2    1.0000      24.108907       0.000000       0.000000
       6       0       2    1.0000      27.122520       0.000000       0.000000
       7       0       2    1.0000      30.136133       0.000000       0.000000
       8       0       2    1.0000      15.068067      -1.533333       2.655811
       9       0       2    1.0000      18.081680      -1.533333       2.655811
      10       0       2    1.0000      21.095293      -1.533333       2.655811
      11       0       2    1.0000      24.108907      -1.533333       2.655811
      12       0       2    1.0000      27.122520      -1.533333       2.655811
      13       0       2    1.0000      30.136133      -1.533333       2.655811
      14       0       2    1.0000      15.068067       1.533333       2.655811
      15       0       2    1.0000      18.081680       1.533333       2.655811
      16       0       2    1.0000      21.095293       1.533333       2.655811
      17       0       2    1.0000      24.108907       1.533333       2.655811
      18       0       2    1.0000      27.122520       1.533333       2.655811
      19       0       2    1.0000      30.136133       1.533333       2.655811
      20       0       2    1.0000      15.068067       3.066667       0.000000
      21       0       2    1.0000      18.081680       3.066667       0.000000
      22       0       2    1.0000      21.095293       3.066667       0.000000
      23       0       2    1.0000      24.108907       3.066667       0.000000
      24       0       2    1.0000      27.122520       3.066667       0.000000
      25       0       2    1.0000      30.136133       3.066667       0.000000
      26       0       2    1.0000      15.068067       1.533333      -2.655811
      27       0       2    1.0000      18.081680       1.533333      -2.655811
      28       0       2    1.0000      21.095293       1.533333      -2.655811
      29       0       1    0.0000      24.108907       1.533333      -2.655811
      30       0       1    0.0000      27.122520       1.533333      -2.655811
      31       0       1    0.0000      30.136133       1.533333      -2.655811
      32       0       1    0.0000      15.068067      -1.533333      -2.655811
      33       0       1    0.0000      18.081680      -1.533333      -2.655811
      34       0       1    0.0000      21.095293      -1.533333      -2.655811
      35       0       1    0.0000      24.108907      -1.533333      -2.655811
      36       0       1    0.0000      27.122520      -1.533333      -2.655811
      37       0       1    0.0000      30.136133      -1.533333      -2.655811
      38       0       1    0.0000      15.068067      -3.066667       0.000000
      39       0       1    0.0000      18.081680      -3.066667       0.000000
      40       0       1    0.0000      21.095293      -3.066667       0.000000
      41       0       1    0.0000      24.108907      -3.066667       0.000000
      42       0       1    0.0000      27.122520      -3.066667       0.000000
      43       0       1    0.0000      30.136133      -3.066667       0.000000
      44       0       1    0.0000      15.068067      -4.600000       2.655811
      45       0       1    0.0000      18.081680      -4.600000       2.655811
      46       0       1    0.0000      21.095293      -4.600000       2.655811
      47       0       1    0.0000      24.108907      -4.600000       2.655811
      48       0       1    0.0000      27.122520      -4.600000       2.655811
      49       0       1    0.0000      30.136133      -4.600000       2.655811
      50       0       1    0.0000      15.068067      -3.066667       5.311622
      51       0       1    0.0000      18.081680      -3.066667       5.311622
      52       0       1    0.0000      21.095293      -3.066667       5.311622
      53       0       1    0.0000      24.108907      -3.066667       5.311622
      54       0       1    0.0000      27.122520      -3.066667       5.311622
      55       0       1    0.0000      30.136133      -3.066667       5.311622
      56       0       1    0.0000      15.068067       0.000000       5.311622
      57       0       1    0.0000      18.081680       0.000000       5.311622
      58       0       1    0.0000      21.095293       0.000000       5.311622
      59       0       1    0.0000      24.108907       0.000000       5.311622
      60       0       1    0.0000      27.122520       0.000000       5.311622
      61       0       1    0.0000      30.136133       0.000000       5.311622
      62       0       1    0.0000      15.068067       3.066667       5.311622
      63       0       1    0.0000      18.081680       3.066667       5.311622
      64       0       1    0.0000      21.095293       3.066667       5.311622
      65       0       1    0.0000      24.108907       3.066667       5.311622
      66       0       1    0.0000      27.122520       3.066667       5.311622
      67       0       1    0.0000      30.136133       3.066667       5.311622
      68       0       1    0.0000      15.068067       4.600000       2.655811
      69       0       1    0.0000      18.081680       4.600000       2.655811
      70       0       1    0.0000      21.095293       4.600000       2.655811
      71       0       1    0.0000      24.108907       4.600000       2.655811
      72       0       1    0.0000      27.122520       4.600000       2.655811
      73       0       1    0.0000      30.136133       4.600000       2.655811
      74       0       1    0.0000      15.068067       6.133333       0.000000
      75       0       1    0.0000      18.081680       6.133333       0.000000
      76       0       1    0.0000      21.095293       6.133333       0.000000
      77       0       1    0.0000      24.108907       6.133333       0.000000
      78       0       1    0.0000      27.122520       6.133333       0.000000
      79       0       1    0.0000      30.136133       6.133333       0.000000
      80       0       1    0.0000      15.068067       4.600000      -2.655811
      81       0       1    0.0000      18.081680       4.600000      -2.655811
      82       0       1    0.0000      21.095293       4.600000      -2.655811
      83       0       1    0.0000      24.108907       4.600000      -2.655811
      84       0       1    0.0000      27.122520       4.600000      -2.655811
      85       0       1    0.0000      30.136133       4.600000      -2.655811
      86       0       1    0.0000      15.068067       3.066667      -5.311622
      87       0       1    0.0000      18.081680       3.066667      -5.311622
      88       0       1    0.0000      21.095293       3.066667      -5.311622
      89       0       1    0.0000      24.108907       3.066667      -5.311622
      90       0       1    0.0000      27.122520       3.066667      -5.311622
      91       0       1    0.0000      30.136133       3.066667      -5.311622
      92       0       1    0.0000      15.068067       0.000000      -5.311622
      93       0       1    0.0000      18.081680       0.000000      -5.311622
      94       0       1    0.0000      21.095293       0.000000      -5.311622
      95       0       1    0.0000      24.108907       0.000000      -5.311622
      96       0       1    0.0000      27.122520       0.000000      -5.311622
      97       0       1    0.0000      30.136133       0.000000      -5.311622
      98       0       1    0.0000      15.068067      -3.066667      -5.311622
      99       0       1    0.0000      18.081680      -3.066667      -5.311622
     100       0       1    0.0000      21.095293      -3.066667      -5.311622
     101       0       1    0.0000      24.108907      -3.066667      -5.311622
     102       0       1    0.0000      27.122520      -3.066667      -5.311622
     103       0       1    0.0000      30.136133      -3.066667      -5.311622
     104       0       1    0.0000      15.068067      -4.600000      -2.655811
     105       0       1    0.0000      18.081680      -4.600000      -2.655811
     106       0       1    0.0000      21.095293      -4.600000      -2.655811
     107       0       1    0.0000      24.108907      -4.600000      -2.655811
     108       0       1    0.0000      27.122520      -4.600000      -2.655811
     109       0       1    0.0000      30.136133      -4.600000      -2.655811
     110       0       1    0.0000      15.068067      -6.133333       0.000000
     111       0       1    0.0000      18.081680      -6.133333       0.000000
     112       0       1    0.0000      21.095293      -6.133333       0.000000
     113       0       1    0.0000      24.108907      -6.133333       0.000000
     114       0       1    0.0000      27.122520      -6.133333       0.000000
     115       0       1    0.0000      30.136133      -6.133333       0.000000
     116       0       1    0.0000      12.054453      -7.666667       2.655811
     117       0       1    0.0000      15.068067      -7.666667       2.655811
     118       0       1    0.0000      18.081680      -7.666667       2.655811
     119       0       1    0.0000      21.095293      -7.666667       2.655811
     120       0       1    0.0000      24.108907      -7.666667       2.655811
     121       0       1    0.0000      27.122520      -7.666667       2.655811
     122       0       1    0.0000      30.136133      -7.666667       2.655811
     123       0       1    0.0000      12.054453      -6.133333       5.311622
     124       0       1    0.0000      15.068067      -6.133333       5.311622
     125       0       1    0.0000      18.081680      -6.133333       5.311622
     126       0       1    0.0000      21.095293      -6.133333       5.311622
     127       0       1    0.0000      24.108907      -6.133333       5.311622
     128       0       1    0.0000      27.122520      -6.133333       5.311622
     129       0       1    0.0000      30.136133      -6.133333       5.311622
     130       0       1    0.0000      12.054453      -4.600000       7.967434
     131       0       1    0.0000      15.068067      -4.600000       7.967434
     132       0       1    0.0000      18.081680      -4.600000       7.967434
     133       0       1    0.0000      21.095293      -4.600000       7.967434
     134       0       1    0.0000      24.108907      -4.600000       7.967434
     135       0       1    0.0000      27.122520      -4.600000       7.967434
     136       0       1    0.0000      30.136133      -4.600000       7.967434
     137       0       1    0.0000      12.054453      -1.533333       7.967434
     138       0       1    0.0000      15.068067      -1.533333       7.967434
     139       0       1    0.0000      18.081680      -1.533333       7.967434
     140       0       1    0.0000      21.095293      -1.533333       7.967434
     141       0       1    0.0000      24.108907      -1.533333       7.967434
     142       0       1    0.0000      27.122520      -1.533333       7.967434
     143       0       1    0.0000      30.136133      -1.533333       7.967434
     144       0       1    0.0000      12.054453       1.533333       7.967434
     145       0       1    0.0000      15.068067       1.533333       7.967434
     146       0       1    0.0000      18.081680       1.533333       7.967434
     147       0       1    0.0000      21.095293       1.533333       7.967434
     148       0       1    0.0000      24.108907       1.533333       7.967434
     149       0       1    0.0000      27.122520       1.533333       7.967434
     150       0       1    0.0000      30.136133       1.533333       7.967434
     151       0       1    0.0000      12.054453       4.600000       7.967434
     152       0       1    0.0000      15.068067       4.600000       7.967434
     153       0       1    0.0000      18.081680       4.600000       7.967434
     154       0       1    0.0000      21.095293       4.600000       7.967434
     155       0       1    0.0000      24.108907       4.600000       7.967434
     156       0       1    0.0000      27.122520       4.600000       7.967434
     157       0       1    0.0000      30.136133       4.600000       7.967434
     158       0       1    0.0000      12.054453       6.133333       5.311622
     159       0       1    0.0000      15.068067       6.133333       5.311622
     160       0       1    0.0000      18.081680       6.133333       5.311622
     161       0       1    0.0000      21.095293       6.133333       5.311622
     162       0       1    0.0000      24.108907       6.133333       5.311622
     163       0       1    0.0000      27.122520       6.133333       5.311622
     164       0       1    0.0000      30.136133       6.133333       5.311622
     165       0       1    0.0000      12.054453       7.666667       2.655811
     166       0       1    0.0000      15.068067       7.666667       2.655811
     167       0       1    0.0000      18.081680       7.666667       2.655811
     168       0       1    0.0000      21.095293       7.666667       2.655811
     169       0       1    0.0000      24.108907       7.666667       2.655811
     170       0       1    0.0000      27.122520       7.666667       2.655811
     171       0       1    0.0000      30.136133       7.666667       2.655811
     172       0       1    0.0000      12.054453       9.200000       0.000000
     173       0       1    0.0000      15.068067       9.200000       0.000000
     174       0       1    0.0000      18.081680       9.200000       0.000000
     175       0       1    0.0000      21.095293       9.200000       0.000000
     176       0       1    0.0000      24.108907       9.200000       0.000000
     177       0       1    0.0000      27.122520       9.200000       0.000000
     178       0       1    0.0000      30.136133       9.200000       0.000000
     179       0       1    0.0000      12.054453       7.666667      -2.655811
     180       0       1    0.0000      15.068067       7.666667      -2.655811
     181       0       1    0.0000      18.081680       7.666667      -2.655811
     182       0       1    0.0000      21.095293       7.666667      -2.655811
     183       0       1    0.0000      24.108907       7.666667      -2.655811
     184       0       1    0.0000      27.122520       7.666667      -2.655811
     185       0       1    0.0000      30.136133       7.666667      -2.655811
     186       0       1    0.0000      12.054453       6.133333      -5.311622
     187       0       1    0.0000      15.068067       6.133333      -5.311622
     188       0       1    0.0000      18.081680       6.133333      -5.311622
     189       0       1    0.0000      21.095293       6.133333      -5.311622
     190       0       1    0.0000      24.108907       6.133333      -5.311622
     191       0       1    0.0000      27.122520       6.133333      -5.311622
     192       0       1    0.0000      30.136133       6.133333      -5.311622
     193       0       1    0.0000      12.054453       4.600000      -7.967434
     194       0       1    0.0000      15.068067       4.600000      -7.967434
     195       0       1    0.0000      18.081680       4.600000      -7.967434
     196       0       1    0.0000      21.095293       4.600000      -7.967434
     197       0       1    0.0000      24.108907       4.600000      -7.967434
     198       0       1    0.0000      27.122520       4.600000      -7.967434
     199       0       1    0.0000      30.136133       4.600000      -7.967434
     200       0       1    0.0000      12.054453       1.533333      -7.967434
     201       0       1    0.0000      15.068067       1.533333      -7.967434
     202       0       1    0.0000      18.081680       1.533333      -7.967434
     203       0       1    0.0000      21.095293       1.533333      -7.967434
     204       0       1    0.0000      24.108907       1.533333      -7.967434
     205       0       1    0.0000      27.122520       1.533333      -7.967434
     206       0       1    0.0000      30.136133       1.533333      -7.967434
     207       0       1    0.0000      12.054453      -1.533333      -7.967434
     208       0       1    0.0000      15.068067      -1.533333      -7.967434
     209       0       1    0.0000      18.081680      -1.533333      -7.967434
     210       0       1    0.0000      21.095293      -1.533333      -7.967434
     211       0       1    0.0000      24.108907      -1.533333      -7.967434
     212       0       1    0.0000      27.122520      -1.533333      -7.967434
     213       0       1    0.0000      30.136133      -1.533333      -7.967434
     214       0       1    0.0000      12.054453      -4.600000      -7.967434
     215       0       1    0.0000      15.068067      -4.600000      -7.967434
     216       0       1    0.0000      18.081680      -4.600000      -7.967434
     217       0       1    0.0000      21.095293      -4.600000      -7.967434
     218       0       1    0.0000      24.108907      -4.600000      -7.967434
     219       0       1    0.0000      27.122520      -4.600000      -7.967434
     220       0       1    0.0000      30.136133      -4.600000      -7.967434
     221       0       1    0.0000      12.054453      -6.133333      -5.311622
     222       0       1    0.0000      15.068067      -6.133333      -5.311622
     223       0       1    0.0000      18.081680      -6.133333      -5.311622
     224       0       1    0.0000      21.095293      -6.133333      -5.311622
     225       0       1    0.0000      24.108907      -6.133333      -5.311622
     226       0       1    0.0000      27.122520      -6.133333      -5.311622
     227       0       1    0.0000      30.136133      -6.133333      -5.311622
     228       0       1    0.0000      12.054453      -7.666667      -2.655811
     229       0       1    0.0000      15.068067      -7.666667      -2.655811
     230       0       1    0.0000      18.081680      -7.666667      -2.655811
     231       0       1    0.0000      21.095293      -7.666667      -2.655811
     232       0       1    0.0000      24.108907      -7.666667      -2.655811
     233       0       1    0.0000      27.122520      -7.666667      -2.655811
     234       0       1    0.0000      30.136133      -7.666667      -2.655811
     235       0       1    0.0000      12.054453      -9.200000       0.000000
     236       0       1    0.0000      15.068067      -9.200000       0.000000
     237       0       1    0.0000      18.081680      -9.200000       0.000000
     238       0       1    0.0000      21.095293      -9.200000       0.000000
     239       0       1    0.0000      24.108907      -9.200000       0.000000
     240       0       1    0.0000      27.122520      -9.200000       0.000000
     241       0       1    0.0000      30.136133      -9.200000       0.000000
     242       0       1    0.0000       0.000000     -10.733333       2.655811
     243       0       1    0.0000       9.040840     -10.733333       2.655811
     244       0       1    0.0000      12.054453     -10.733333       2.655811
     245       0       1    0.0000      15.068067     -10.733333       2.655811
     246       0       1    0.0000      18.081680     -10.733333       2.655811
     247       0       1    0.0000      21.095293     -10.733333       2.655811
     248       0       1    0.0000      24.108907     -10.733333       2.655811
     249       0       1    0.0000      27.122520     -10.733333       2.655811
     250       0       1    0.0000      30.136133     -10.733333       2.655811
     251       0       1    0.0000       9.040840      -9.200000       5.311622
     252       0       1    0.0000      12.054453      -9.200000       5.311622
     253       0       1    0.0000      15.068067      -9.200000       5.311622
     254       0       1    0.0000      18.081680      -9.200000       5.311622
     255       0       1    0.0000      21.095293      -9.200000       5.311622
     256       0       1    0.0000      24.108907      -9.200000       5.311622
     257       0       1    0.0000      27.122520      -9.200000       5.311622
     258       0       1    0.0000      30.136133      -9.200000       5.311622
     259       0       1    0.0000       0.000000      -7.666667       7.967434
     260       0       1    0.0000       9.040840      -7.666667       7.967434
     261       0       1    0.0000      12.054453      -7.666667       7.967434
     262       0       1    0.0000      15.068067      -7.666667       7.967434
     263       0       1    0.0000      18.081680      -7.666667       7.967434
     264       0       1    0.0000      21.095293      -7.666667       7.967434
     265       0       1    0.0000      24.108907      -7.666667       7.967434
     266       0       1    0.0000      27.122520      -7.666667       7.967434
     267       0       1    0.0000      30.136133      -7.666667       7.967434
     268       0       1    0.0000       0.000000      -6.133333      10.623245
     269       0       1    0.0000       3.013613      -6.133333      10.623245
     270       0       1    0.0000       6.027227      -6.133333      10.623245
     271       0       1    0.0000       9.040840      -6.133333      10.623245
     272       0       1    0.0000      12.054453      -6.133333      10.623245
     273       0       1    0.0000      15.068067      -6.133333      10.623245
     274       0       1    0.0000      18.081680      -6.133333      10.623245
     275       0       1    0.0000      21.095293      -6.133333      10.623245
     276       0       1    0.0000      24.108907      -6.133333      10.623245
     277       0       1    0.0000      27.122520      -6.133333      10.623245
     278       0       1    0.0000      30.136133      -6.133333      10.623245
     279       0       1    0.0000       0.000000      -3.066667      10.623245
     280       0       1    0.0000       9.040840      -3.066667      10.623245
     281       0       1    0.0000      12.054453      -3.066667      10.623245
     282       0       1    0.0000      15.068067      -3.066667      10.623245
     283       0       1    0.0000      18.081680      -3.066667      10.623245
     284       0       1    0.0000      21.095293      -3.066667      10.623245
     285       0       1    0.0000      24.108907      -3.066667      10.623245
     286       0       1    0.0000      27.122520      -3.066667      10.623245
     287       0       1    0.0000      30.136133      -3.066667      10.623245
     288       0       1    0.0000       9.040840       0.000000      10.623245
     289       0       1    0.0000      12.054453       0.000000      10.623245
     290       0       1    0.0000      15.068067       0.000000      10.623245
     291       0       1    0.0000      18.081680       0.000000      10.623245
     292       0       1    0.0000      21.095293       0.000000      10.623245
     293       0       1    0.0000      24.108907       0.000000      10.623245
     294       0       1    0.0000      27.122520       0.000000      10.623245
     295       0       1    0.0000      30.136133       0.000000      10.623245
     296       0       1    0.0000       0.000000       3.066667      10.623245
     297       0       1    0.0000       9.040840       3.066667      10.623245
     298       0       1    0.0000      12.054453       3.066667      10.623245
     299       0       1    0.0000      15.068067       3.066667      10.623245
     300       0       1    0.0000      18.081680       3.066667      10.623245
     301       0       1    0.0000      21.095293       3.066667      10.623245
     302       0       1    0.0000      24.108907       3.066667      10.623245
     303       0       1    0.0000      27.122520       3.066667      10.623245
     304       0       1    0.0000      30.136133       3.066667      10.623245
     305       0       1    0.0000       0.000000       6.133333      10.623245
     306       0       1    0.0000       3.013613       6.133333      10.623245
     307       0       1    0.0000       6.027227       6.133333      10.623245
     308       0       1    0.0000       9.040840       6.133333      10.623245
     309       0       1    0.0000      12.054453       6.133333      10.623245
     310       0       1    0.0000      15.068067       6.133333      10.623245
     311       0       1    0.0000      18.081680       6.133333      10.623245
     312       0       1    0.0000      21.095293       6.133333      10.623245
     313       0       1    0.0000      24.108907       6.133333      10.623245
     314       0       1    0.0000      27.122520       6.133333      10.623245
     315       0       1    0.0000      30.136133       6.133333      10.623245
     316       0       1    0.0000       0.000000       7.666667       7.967434
     317       0       1    0.0000       9.040840       7.666667       7.967434
     318       0       1    0.0000      12.054453       7.666667       7.967434
     319       0       1    0.0000      15.068067       7.666667       7.967434
     320       0       1    0.0000      18.081680       7.666667       7.967434
     321       0       1    0.0000      21.095293       7.666667       7.967434
     322       0       1    0.0000      24.108907       7.666667       7.967434
     323       0       1    0.0000      27.122520       7.666667       7.967434
     324       0       1    0.0000      30.136133       7.666667       7.967434
     325       0       1    0.0000       9.040840       9.200000       5.311622
     326       0       1    0.0000      12.054453       9.200000       5.311622
     327       0       1    0.0000      15.068067       9.200000       5.311622
     328       0       1    0.0000      18.081680       9.200000       5.311622
     329       0       1    0.0000      21.095293       9.200000       5.311622
     330       0       1    0.0000      24.108907       9.200000       5.311622
     331       0       1    0.0000      27.122520       9.200000       5.311622
     332       0       1    0.0000      30.136133       9.200000       5.311622
     333       0       1    0.0000       0.000000      10.733333       2.655811
     334       0       1    0.0000       9.040840      10.733333       2.655811
     335       0       1    0.0000      12.054453      10.733333       2.655811
     336       0       1    0.0000      15.068067      10.733333       2.655811
     337       0       1    0.0000      18.081680      10.733333       2.655811
     338       0       1    0.0000      21.095293      10.733333       2.655811
     339       0       1    0.0000      24.108907      10.733333       2.655811
     340       0       1    0.0000      27.122520      10.733333       2.655811
     341       0       1    0.0000      30.136133      10.733333       2.655811
     342       0       1    0.0000       0.000000      12.266667       0.000000
     343       0       1    0.0000       3.013613      12.266667       0.000000
     344       0       1    0.0000       6.027227      12.266667       0.000000
     345       0       1    0.0000       9.040840      12.266667       0.000000
     346       0       1    0.0000      12.054453      12.266667       0.000000
     347       0       1    0.0000      15.068067      12.266667       0.000000
     348       0       1    0.0000      18.081680      12.266667       0.000000
     349       0       1    0.0000      21.095293      12.266667       0.000000
     350       0       1    0.0000      24.108907      12.266667       0.000000
     351       0       1    0.0000      27.122520      12.266667       0.000000
     352       0       1    0.0000      30.136133      12.266667       0.000000
     353       0       1    0.0000       0.000000      10.733333      -2.655811
     354       0       1    0.0000       9.040840      10.733333      -2.655811
     355       0       1    0.0000      12.054453      10.733333      -2.655811
     356       0       1    0.0000      15.068067      10.733333      -2.655811
     357       0       1    0.0000      18.081680      10.733333      -2.655811
     358       0       1    0.0000      21.095293      10.733333      -2.655811
     359       0       1    0.0000      24.108907      10.733333      -2.655811
     360       0       1    0.0000      27.122520      10.733333      -2.655811
     361       0       1    0.0000      30.136133      10.733333      -2.655811
     362       0       1    0.0000       9.040840       9.200000      -5.311622
     363       0       1    0.0000      12.054453       9.200000      -5.311622
     364       0       1    0.0000      15.068067       9.200000      -5.311622
     365       0       1    0.0000      18.081680       9.200000      -5.311622
     366       0       1    0.0000      21.095293       9.200000      -5.311622
     367       0       1    0.0000      24.108907       9.200000      -5.311622
     368       0       1    0.0000      27.122520       9.200000      -5.311622
     369       0       1    0.0000      30.136133       9.200000      -5.311622
     370       0       1    0.0000       0.000000       7.666667      -7.967434
     371       0       1    0.0000       9.040840       7.666667      -7.967434
     372       0       1    0.0000      12.054453       7.666667      -7.967434